# vtk DataFile Version 4.2
written by TiGER
ASCII
DATASET UNSTRUCTURED_GRID
POINTS 29120 double
-36549.9177443599983235 -6224.5166999240000223 -1299.5136439890000020
-36351.0889409555966267 -6224.5166999240000223 -1247.6878269805324635
-35348.5789004040270811 -846.9636318368222874 -851.4915772905427502
-35381.2031011613289593 -992.9993417108520362 -863.6583043727522409
-36037.2333731920298305 -3929.5876488863859777 -1108.3153715862413264
-36075.6350272354757180 -4101.4849729094185022 -1122.6367168883962222
-36114.0942336123916903 -4273.6399184427909859 -1136.9795255066778736
-36152.5470611158598331 -4445.7663102249807707 -1151.3199552157323069
-36190.9915037745813606 -4617.8551689265877940 -1165.6572579173694066
-36229.4346942010743078 -4789.9384222610669894 -1179.9940936169832639
-36268.1552564132653060 -4963.2632749200965918 -1194.4343711401097607
-36307.0116483430756489 -5137.1961421441710627 -1208.9253044054607926
-36346.1937315079412656 -5312.5869010439946578 -1223.5376995389372041
-36386.5186782655000570 -5493.0934602445931887 -1238.5763092340464482
-36426.8436250230515725 -5673.6000194451889911 -1253.6149189291559196
-36467.3906125682115089 -5855.1004998235130188 -1268.7363355467718975
-36508.3816816885810113 -6038.5888225572916781 -1284.0233660094002062
-35207.4749318183457945 -874.4991198953005096 -808.3072084861088342
-35880.6268459999992047 -4060.5901250000001710 -1066.3127529999999297
-36030.2274790000010398 -4745.1882240000004458 -1123.7695320000000265
-35988.3707569999969564 -4574.6014279999999417 -1108.3975700000000870
-35955.9222220000010566 -4403.9746750000003885 -1095.1423509999999624
-35916.4316669999971054 -4230.0670739999995931 -1080.2165410000000065
-36068.4948409999997239 -4921.2349759999997332 -1138.5662070000000767
-36102.0952459999971325 -5097.8870129999995697 -1152.4589080000000649
-36138.0716919999977108 -5273.8605360000001383 -1166.8807269999999789
-36242.3065179999975953 -5622.3975600000003396 -1201.9996750000000247
-36186.1098849999980303 -5450.0628509999996822 -1183.8501890000000003
-36289.2786209999976563 -5801.7510849999998754 -1218.6155269999999291
-36314.8994349999993574 -6022.4559890000000451 -1234.0016809999999623
-35348.0461475770935067 -844.5788703572876557 -871.2696350366089746
-35380.7512790955224773 -990.9768505973972879 -883.1197746546349663
-36009.5840025894285645 -3805.8207712375638039 -1110.9664526470185137
-36046.4554312011387083 -3970.8683471593608374 -1124.3261780686275415
-36083.3329739943219465 -4135.9432919917117033 -1137.6881188583074618
-36120.2116847718134522 -4301.0234650722268270 -1151.0504828469299810
-36157.0872827372804750 -4466.0897042722763217 -1164.4117189618696102
-36193.9605958571846713 -4631.1457158181283376 -1177.7721272024748487
-36230.8400460408520303 -4796.2291987025155322 -1191.1347591021524295
-36267.7464590310992207 -4961.4333751979729641 -1204.5071605091661695
-36304.6964735502988333 -5126.8327252175649846 -1217.8953601772400361
-36341.6755389243407990 -5292.3621155786868258 -1231.2940859208808888
-36381.9502413745140075 -5472.6437661861255037 -1245.8869288464175042
-36422.2249438246872160 -5652.9254167935623627 -1260.4797717719520733
-36463.2228687797833118 -5836.4444283003094824 -1275.3346618827513339
-36505.6672387447251822 -6026.4381616056853090 -1290.7136463640824786
-36549.9177443599983235 -6224.5166999240000223 -1306.7470529079998869
-36369.7279143639389076 -6224.5166999240000223 -1289.4051060489127849
-35202.9078951080518891 -872.0068791410691347 -837.9047771806122000
-36034.6287638522699126 -4582.1042210115392663 -1146.2508942379370183
-35997.8742144290445140 -4417.0629482192089199 -1132.3141008346192393
-35924.2967117111984408 -4086.9568855257566611 -1104.5474684922364759
-35961.0835438279755181 -4252.0140772069053128 -1118.4131148426165510
-36071.3150843973708106 -4747.1665573914588094 -1160.2281739901507081
-36193.2769049999988056 -5243.4041120000001683 -1204.5148289999999633
-36276.7159749999991618 -5593.5850799999998344 -1234.8854040000001078
-36236.1675620000023628 -5415.7210009999998874 -1219.4185259999999289
-36290.0163630000024568 -5789.4130580000000919 -1251.4995930000000044
-36351.4501410000011674 -5987.1105569999999716 -1267.6507369999999355
-36549.9177443599983235 -6224.5166999240000223 -1303.1303484484999444
-35348.3212894553580554 -845.8104879470965898 -861.3855733543124416
-36542.4990830000024289 -6191.3085440000004382 -1300.3892630000000281
-36547.4448570000022301 -6213.4473150000003443 -1303.4222210000000359
-36528.0195440000024973 -6126.4937840000002325 -1295.1205620000000636
-35352.1455100000021048 -862.9288440000000264 -865.4859689999999546
-35351.8894930000024033 -861.7828359999999748 -860.3217949999999519
-35362.5555200000017066 -909.5271750000000566 -866.8661839999999756
-36528.5406379999985802 -6224.5167000000001281 -1298.8300979999999072
-36527.7464360000012675 -6224.5167000000001281 -1300.3561549999999443
-36486.7968180000025313 -6224.5167000000001281 -1292.4476500000000669
-35317.5101911194069544 -7.0840673330819381 -1737.5865082345490009
-35317.5146541113572312 -3.5420769433838633 -1737.6123907097537540
-35317.5161419017531443 -0.0000000000000448 -1737.6210189346720654
-35467.1428130368076381 -0.0000000000000335 -1725.7229688084062218
-35184.0043552440329222 -25.7649055891369443 -1747.3069131361967266
-35330.5387639999971725 -2.9414980000000002 -1736.5924629999999524
-35336.1460409999999683 -5.4023719999999997 -1736.1402000000000498
-35325.8992349999971339 -9.7229539999999997 -1736.8996959999999490
-35381.6398140000019339 -3.0862889999999998 -1732.5238420000000588
-35343.0288199999995413 -7.7424480000000004 -1735.5739450000000943
-35396.4938029999975697 -8.7144840000000006 -1731.3000259999998889
-35337.0020260000019334 -844.7422870000000330 -882.8650959999999941
-35325.8779769999964628 -852.8105630000000019 -832.3336399999999458
-35287.3845609999989392 -854.8514659999999594 -866.4899110000000064
-35284.0794610000011744 -860.6308480000000145 -822.3828160000000480
-35265.6416489999974146 -865.3869760000000042 -803.5944019999999455
-35262.4420689999969909 -857.8853239999999687 -873.1134080000000495
-35317.5146541081558098 3.5420769432922001 -1737.6123906912894199
-35317.5101911194069544 7.0840673330839792 -1737.5865082345499104
-35169.3338577286194777 27.7821838749997205 -1748.3208070078060246
-35201.7147180304746144 872.2203426315329580 -837.6994996053634850
-35348.0461475771298865 844.5788703573416569 -871.2696350363943338
-35348.3212894627940841 845.8104879803956919 -861.3855733583959591
-35348.5789004040270811 846.9636318368982302 -851.4915772905100084
-35207.4801978541945573 874.4981347554135027 -808.3087089909287215
-35330.5388210000019171 2.9415010000000001 -1736.5932089999998880
-35336.1461350000026869 5.4023800000000000 -1736.1414870000000974
-35381.6398370000024443 3.0862850000000002 -1732.5245899999999892
-35317.5377399999997579 12.6034910000000000 -1737.5091110000000754
-35313.9158279999974184 11.3875010000000003 -1737.8091340000000855
-35306.3105789999972330 16.4657909999999994 -1738.3024049999999079
-35396.4939099999974133 8.7144759999999994 -1731.3017359999998916
-35293.4374499999976251 15.0243050000000000 -1739.3041800000000876
-35252.2690880000009201 21.8425559999999983 -1742.2423320000000331
-35335.9365000000034343 844.9642280000000483 -882.5090149999999767
-35325.8787860000011278 852.8105789999999615 -832.3338300000000345
-35291.6319149999981164 854.2074440000000095 -866.2653430000000299
-35284.0817039999965345 860.6305280000000266 -822.3834010000000490
-35265.6435809999966295 865.3865250000000060 -803.5950769999999466
-35261.6402729999972507 858.1017299999999750 -872.4458750000000009
-21846.5187224100009189 16364.8523526299995865 225.2029248657999858
-21648.0077783080669178 16364.8523526299995865 155.2329353964695997
-20368.4070520565765037 11415.6940141992927238 655.1726988975294717
-20430.3840540713827068 11623.2132172611618444 637.1439383494021058
-20491.6158570934312593 11828.2370078688272770 619.3319789709039469
-20547.5340232695307350 12015.4688310977835499 603.0657464854153886
-20650.7784326176260947 12361.1635145535510674 573.0326683290381879
-20700.3363383177784272 12527.0987338097784232 558.6166417785273097
-20797.9669987971901719 12853.9960775644831301 530.2166467930020417
-20847.7059490835199540 13020.5371472520437237 515.7479937426395509
-21404.6141370874975109 14885.2290272357313370 353.7485643284880439
-21453.6463658308130107 15049.4030087783357885 339.4855762072731977
-21504.9602851562667638 15221.2167257621622412 324.5588691660257155
-21556.4438673215663584 15393.5985096436852473 309.5828103330834438
-21605.7085326936430647 15558.5507191875367425 295.2522127620162564
-21654.4690260052557278 15721.8148179077688837 281.0682736107567052
-21703.2295170958350354 15885.0789172696495370 266.8843342098092535
-21751.6838254266112926 16047.3178433556240634 252.7894587206302504
-21799.5257706237025559 16207.5064222005148622 238.8727113232113197
-21598.8965470000002824 16196.3729010000006383 171.6874400000000094
-21461.8349950000010722 15684.9346210000003339 219.7862269999999967
-21258.4913420000011683 15015.6811710000001767 276.2833850000000098
-21432.8239189999985683 15512.3217540000005101 241.5702620000000138
-20503.3427029999984370 12497.3439679999992222 492.2989220000000046
-20658.7127589999981865 12981.3876579999996466 453.8408220000000028
-21287.5236130000012054 15187.8413729999992938 254.8360409999999945
-21358.7462630000009085 15347.4277710000005754 248.1149859999999876
-20343.3116190000000643 11967.0069960000000719 537.3319199999999682
-20277.5684629999996105 11770.9301749999995081 551.7832190000000310
-20386.4377270271543239 11479.4589283311761392 665.4246215029559153
-20438.1589692139059480 11652.6001991352950427 650.1666516602401771
-20490.0098943036100536 11826.1752280802083988 634.8704665930497413
-20541.5178689897147706 11998.6018579002557090 619.6754923597491143
-20591.2193124737204926 12164.9806848238058592 605.0134844655764255
[...]
POINT_DATA 29120
FIELD FieldData 1
point_attribute_double 1 29120 double
48.8129797280500455
72.6511393850269229
29.8786165310438818
57.4117230981741642
164.5546528704367688
182.7611587360997873
182.4767667755492653
181.3242315833341252
179.6118968656018922
176.4903469085205927
176.3100492984190453
181.8121292793481132
186.0800355985949750
178.1738579351551550
172.0326519935949250
182.3647679042550465
168.8655007373785963
104.2960337842883831
55.6258873637023044
56.1154530658611037
56.7291095904916034
55.8342534496771492
55.9538202317941682
56.3148290431158856
57.2504369804034496
57.8166471171838339
53.8164243026752160
56.6251850888677026
52.7542162734031734
56.7832866395152323
29.0894330674392734
57.3045095497269585
43.7570727703577944
154.8209836247797853
153.9859012164909018
152.7237991263829429
151.0448001028184422
148.9287856077493188
147.1788887833716615
32.7327255752106012
145.1462223742578317
144.9453230563631791
145.2318052715879730
155.3681357747396135
162.5494539318543445
157.5200412542490938
41.1580495202415690
66.6170718062557654
105.6650638686386117
48.7349517089002191
48.7315969502418298
48.7327359440370813
48.7333071902754540
48.7515297280843924
46.8983825526804594
46.8599972621737493
47.0099743982880582
51.7833832318333549
49.5521522060774302
11.6252823320300678
10.3328827546131929
36.1018730502267289
14.5324750535663423
91.1927312309795752
17.3032300405106234
16.5654510280937508
75.0486228628592329
13.5671984917441240
13.8684102114339769
99.3644755091008562
23.7614903627644942
7.4438433826651913
19.1806479866102464
70.7920172421708003
48.8491546360455757
15.3224160044615942
12.9534812814592115
7.3262034308449433
38.8486477850627381
10.4396849973118808
16.5706861050440217
15.0489836437502351
17.4212131939629415
37.3813743555534472
39.9966444905801524
18.4875692147807165
19.4306958860067951
12.0164229194510739
30.5466330782919151
51.4191651922586743
122.4832044746597433
29.1146668148261298
10.3328347110543568
29.8782162439860066
115.1280061235121650
15.3224101558629240
13.1651176015613931
36.7140801291340964
4.3899866155350837
7.8141512841494372
7.8075704052339576
16.5706884587989052
20.5962042916630459
22.3844190305596022
14.7020873980587794
17.4208722049245459
36.3991453748966904
39.9957858585949140
18.4872550438384025
20.5886438302878148
85.0724898239235614
57.4875590910277126
38.3790860361585118
199.3184158989514856
190.5472836179405647
178.5041495637771050
143.5028303340900209
164.9052849463604389
125.0434186611709322
166.7418356458438780
159.8208955724759051
192.4775530492774465
191.8546533694277514
175.5948954655950445
172.2836322911225579
167.4660629853288469
50.4397140067657546
169.1826206877018421
161.4563014761118893
57.7757993437993633
55.2473529976509568
55.8923059789748962
51.6098539265857568
56.5887106071869184
54.8107124814824118
59.7748710259142015
56.0080307254356953
57.7111667776037933
59.5967302285267522
124.2146153349828097
158.0064919381511288
37.6477481755248959
157.9314441592051708
47.2913500200550843
29.9424961285203253
152.7372452416295801
44.5226478681603766
29.2720169003184942
152.4114573189560531
45.0047211864574166
42.2806297068411965
150.1687457984612308
148.6798076980450674
148.1218796489426097
147.4254403856522799
146.9908744206077813
146.8652053569451539
50.0676577435550456
153.9810077850534356
154.5057761281952367
93.8579217836011708
53.3917080267158681
52.0241343914908612
47.3802853854427610
47.3729135580260774
46.7056661141319296
46.8251292754710420
46.7968690531601297
47.4948459711436612
14.8882783591014363
29.9827076989183183
12.2731124880818534
74.8742767414469483
23.6331979724317875
23.3318185356262298
50.5326421235692962
136.4224205168923447
182.6379397320264104
173.7181303539951500
184.9059283450094142
171.2822128304609919
170.5737333945365606
179.6102177646497751
182.5635231736690685
177.5186202171964567
178.9068869978538885
181.8998432348443828
180.0367225945662710
177.0625911877990575
180.4184558493665520
181.3998599523278870
175.2842912319081847
180.3116281466644750
155.9618510297024159
168.5206065729910563
181.3559900270655874
49.5682116089209188
64.9509832409446375
54.3138058210802299
55.2466986055194624
52.2675839312551673
52.2034126806148961
56.9045946480948004
54.6263560022408186
55.9835719429425041
57.3334171756805233
56.6026765778167515
58.1496957915119239
56.9425848886318491
55.0934854691878897
54.0050751641119149
58.0255761675205406
57.9777593682582690
56.7888812562478833
59.9421730893211375
23.1880963821191841
161.5439469224583320
47.8862492816063465
45.0504539336220020
150.9772468551816189
145.6574548271474328
143.2435323421419184
142.3209723663638044
142.1033941548281234
144.8737990997553879
34.4630312833177399
144.7743941063953912
141.7065384751080046
143.5080021729274051
148.3620543838559627
54.8347445068488781
154.8024862878916679
155.3383086319774122
153.5189261790497710
155.9880902525347892
40.0501232437582502
42.1007052194473346
169.3027114857937363
156.8051001055198412
58.7811046278135549
56.9976301104506220
47.8978959714471273
46.5974800613680742
46.5744200817325691
46.6285960030588740
46.4042501442044824
52.1658269215165546
46.6141389473453955
48.5880068680833261
46.5489902915769349
48.6488221897616882
46.8718765126082175
46.7982396592352288
15.4732845124283465
35.0354613062852351
13.9847789396690629
86.9200902112511926
23.2628102277093838
22.9633948352243848
83.1594501537203001
57.4196924764613570
162.7842533544707919
197.1875014198675444
194.3895205785788391
187.7726611387779201
181.2701426401644369
177.5287795339495176
172.6037249785670156
177.8036914494507528
117.1514738986122097
55.7489627217174331
127.0731910682324468
56.5285460288901689
57.9262424098058233
59.0495784969065554
58.8251784208507544
55.8737733935773377
54.8491920518790295
53.8440660327002192
79.9646969528877776
57.3427251810548100
41.5827136133578747
157.6078361596762534
59.4666783760870175
155.2837498465246995
152.8328138905278877
150.6750879643007011
146.2517233680285358
147.1174751146656092
148.4600275844566397
157.8594737418393947
49.9558950895957139
52.7186607291517149
48.8216786132908993
48.8394292391102383
48.0216622387593048
47.0456963907202592
48.4398299466372393
49.3806588492712635
15.7687570911720520
36.8321177414040761
14.8203773012319093
93.1602649242703365
17.3030432647076289
16.5652833412849745
75.0466871723516817
47.5735785565445966
34.7426044827389120
79.0121116347050645
158.9998999556592878
169.0465070363885047
56.1825245528648836
243.7405152841081133
297.4731809359101931
340.3864841913752457
379.3255767168270722
466.1222349406593253
355.3875498769614296
354.2330484216763011
215.2527129469832232
420.5023940114514858
299.0918657865992145
238.2433906607900553
83.0798951953177038
53.1749297017631761
77.0760800275500486
85.4175815420075821
93.4606729840875090
81.4664767020808966
101.3942669752255483
89.0323929055763728
146.6842303455881904
101.1833299960007366
105.7189329102375552
162.2051698598764062
174.2009322112564007
219.7947527478997074
258.0175751192459188
299.8611666075702828
339.5132692687271856
374.7202411379781779
394.6700614195336243
411.0396898579306821
376.8023267401860039
398.8712001656572852
399.5575455638658582
374.1204382818723388
91.0346766693113523
117.4661567806762292
51.2010669901558657
60.5483769480373084
68.5953649335830846
77.1948310942637477
85.1696807502741677
91.7786769221219458
97.6447115317396452
94.5215747523316452
91.2272672656380621
91.5368244629271715
98.6877898157759006
102.1267383715646702
16.3767181576855023
75.4587478367117654
57.9031280055354145
19.7207629721757236
11.5916096769855272
48.6858686215906715
9.0548821515394611
233.5930195576276844
36.6634879785014647
32.9764629439867321
47.7911618623107870
44.5330381585904007
34.8771722928956507
228.1501909694323160
648331.7493515983223915
632369.8893752160947770
491756.6403175508603454
496356.6741153169423342
502623.3991779320058413
531345.3972716627176851
602317.0609106259653345
589100.4074349793372676
647560.0893364708172157
503090.3035267472150736
499645.5230005122139119
510750.8982435898506083
550821.8591605995316058
595899.0555137142073363
535504.4419610038166866
589145.3481189343146980
643389.2521815859945491
498031.3306628550053574
496326.9123476403765380
507945.3194261175231077
556627.3127024209825322
594587.7899189301533625
633022.3850591548252851
500457.7162277324241586
492878.1293213653843850
500533.2357462293584831
541779.4433795571094379
603369.8959695225348696
568538.8273199774557725
559638.1406180191552266
636577.2353343323338777
500615.8893646184005775
535841.3771067698253319
535879.2555786251323298
548883.2100160236004740
481754.7965900658746250
478965.4483894995064475
484467.7862590617151000
480556.7017075287294574
453257.1820762819261290
500286.1031414867611602
488684.3002759520895779
496426.6719070759718306
526075.1976839425042272
490621.5486371384467930
526895.3341364490333945
486316.0242480198503472
498787.8338429295690730
463883.5121103490819223
478191.4962195945554413
522940.8082350945333019
461250.3537964552524500
455404.2604395651724190
432994.8604460889473557
429284.8539378524874337
431807.0512043314520270
456234.1433093746309169
417051.2694462839281186
419971.1686515160836279
423659.9843910973868333
393645.3763382495380938
428881.4458139218622819
452404.3499486917280592
412879.0541192686068825
453430.4550391911179759
420259.7859876418369822
447412.8072215977008455
457924.3762513256515376
423564.1945666195242666
435505.5386168021941558
409367.0949432219495066
405359.3135006832890213
409302.7014185281586833
401279.4550073193968274
458586.4657934047863819
388457.8279046597308479
435283.1883011214667931
409142.9199639861471951
376031.3450602644006722
404276.5131591227254830
375477.5031210079323500
475226.2432055496610701
440218.2826509692240506
443760.5128681964124553
448037.2501775136915967
589322.0743216139962897
644792.1585529462900013
501555.9634685377241112
500990.6419748313492164
509508.6895562277059071
552601.8892015053424984
593868.4896230548620224
535219.8496340926503763
675139.1716242472175509
520613.7667899887310341
476380.3523308351868764
501065.0807320189778693
577742.6699250175151974
586670.3453576222527772
486468.5074023997876793
535069.1053748315898702
671546.1763215252431110
518586.3826835733489133
495525.8144320484134369
513832.8961134846322238
578994.9889740312937647
584803.6776843779953197
660966.5885236308677122
524385.3748386513907462
511744.9513488446827978
510173.2510685754823498
544138.2834643485257402
595237.0026047021383420
546189.3798523044679314
576301.5882688463898376
629296.0140069565968588
530440.2170906355604529
512428.6258002596441656
479959.6681317738839425
546793.6228703710949048
488353.2050278374808840
488499.9972781952819787
488096.5367821345571429
505035.4848972486215644
480394.6087761152302846
437455.6471645485726185
503010.7567213224247098
501887.7890900855418295
544250.6023194962181151
520774.2942815630231053
449983.8373524430789985
496110.0139912941376679
493880.4637935521895997
457728.2034634039737284
515846.8739953494514339
502504.8771502941963263
464275.5389103833003901
460900.4862407146138139
427003.5661051312927157
431205.8244281912920997
432118.4145511347451247
408707.0440935791120864
462930.0657425567042083
409124.4677723079803400
412317.5595040299813263
407402.0445403791964054
425033.0608975656796247
424455.0429526687366888
402278.3290901932632551
393156.2451363004511222
397948.1169647722272202
477200.6926329573034309
409506.8542490245308727
399374.7183763293433003
383903.4108635591692291
412874.3575926024350338
404016.3860139127937146
399598.4412799338460900
409764.6357169778784737
396560.3133321115747094
398071.9839890117291361
408534.4310515609686263
469068.2133326648618095
407484.9271412702510133
398622.6686449031694792
408713.5731852488243021
386824.4067002163501456
413977.3566072024405003
437128.7923359242267907
451370.5651605235761963
401702.4384777623927221
479341.8521146362763830
648951.2013349833432585
529433.5982133151264861
528147.2647884117905051
510891.2724335236707702
511979.1420760268229060
603547.4154766839928925
659425.9313345771515742
524100.9315952225588262
488991.8183542496408336
494737.4781648180214688
544567.6718011817429215
594190.7313376303063706
629346.7997163390973583
546108.5197957725031301
580691.1859127399511635
531706.4553626878187060
518806.6005501291947439
479799.7270066013443284
543768.6846157191321254
487854.2599630295881070
488551.7893190630711615
490178.0326179804978892
505182.7750293128774501
435231.7711293086176738
478975.3339838586398400
501636.4610226317890920
502800.7637038346147165
449501.7624125543516129
547473.9339306600159034
520890.3472142100799829
495755.9913758377660997
493366.9716033933218569
457498.7157585930544883
521679.1193957508075982
500960.4690378499217331
463478.2641399038839154
457702.7392760521615855
427388.8147883823257871
430366.2444634722778574
430796.6177199152298272
409112.7447688727406785
462318.9149000077741221
409686.8975646693143062
412322.9251361726783216
406085.3982504308223724
424774.4600482502137311
419674.5804222720908001
402511.8799829918425530
395498.7382154825609177
399144.3373836208484136
409311.8038842982496135
471572.3312108484096825
399381.6848609420703724
381294.1933094889391214
412745.7756303952774033
403644.1429730455856770
399839.1679301551193930
410895.7028776399092749
396894.3168599910568446
397899.3957169158966281
408258.1635460911202244
467677.6289784091059119
407324.9408486290485598
398809.7484188731759787
408466.2865169669967145
384991.9011887609376572
413584.9936730522313155
438038.5041478910134174
451806.9006167471525259
401847.2264175487798639
478855.5482337551657110
662943.8767322410130873
528801.0700017382623628
516189.3921460431301966
515986.1446349361212924
539514.3151697841240093
595642.9555679712211713
672954.1797411218285561
504850.9548096188809723
465658.9311585941468365
503834.3538306863047183
569531.8055413902038708
585168.8249708869261667
629345.4347288599237800
546108.5018135707359761
580690.6438332030083984
531706.3769143967656419
518805.4183900809148327
479799.7062962102354504
543769.5890421952353790
487854.4329137181048281
488552.1676424404722638
490176.2838310744846240
505179.9909859294421040
435233.3281337712542154
478976.5578613026882522
501635.5977022302686237
502799.6490325386985205
449499.9770974639686756
547474.2466447302140296
520889.8165636365883984
495754.8149413577630185
493365.4369103114586323
457498.5876673090388067
521678.6123404015670530
500960.3981633774237707
463478.7055463177384809
457703.2875022296211682
427389.9480428145616315
430367.2972318258835003
430797.7529181839781813
409114.8749816335039213
462319.4052953902864829
409688.9210866696666926
412324.9753310113446787
406087.4745641722111031
424775.6403375132940710
419675.8997273814165965
402514.0888800039538182
395500.9984332931926474
399146.7564299451769330
409311.9948331899940968
471574.8518390749231912
399382.8459117938764393
381296.9845789325190708
412746.3669909026939422
403645.3356326203211211
399841.0463733471115120
410897.0085594257689081
396895.5426121593918651
397898.9066779219429009
408258.2820754327112809
467679.4185380036942661
407325.4094958656351082
398810.9072267977171578
408465.9769605696783401
384991.8128339039394632
413584.2783530904562213
438038.2180120382108726
451806.2644734184141271
401846.7689702252973802
478853.8617557139950804
621193.6289762071100995
547968.7627160806441680
576100.9207383815664798
531953.5156394642544910
511175.8407196865882725
484154.2637555755209178
530829.6018516669282690
487397.5390566596179269
502692.2831057686125860
489307.3785226620384492
490873.7794233147287741
501926.9908236695337109
498623.8322013161960058
493861.1821429358678870
506065.8002331951283850
448165.4164131106226705
522431.6667220090748742
535586.8674097132170573
496863.5965113283018582
492513.6761751962476410
460348.4747138715465553
508217.8664912129170261
506678.0993019249872304
464992.7784620127058588
460857.3257085686782375
427799.6857022911426611
431417.0110418089316227
436962.9458509287796915
465765.3153318808763288
409222.3707553697749972
407716.3832693400909193
411543.9210574915632606
391968.1529118145699613
426167.9493488588486798
465671.5017723932978697
403128.7111132154241204
415733.7968040421837941
406182.1084095148253255
411395.5307861850596964
398452.9792119390331209
485727.5750361508689821
411950.5070251887664199
403981.2879223860800266
402932.2072324004257098
429516.7918731083627790
402943.4417831091559492
393103.4056815190706402
405682.5391184337204322
442237.2096070139086805
410565.9983737795264460
400501.2292362324078567
406229.5590732910786755
390570.3977030963869765
412227.5668529516551644
438186.3430538093089126
452009.1232739946572110
400993.5313525222009048
476989.8857160257175565
630804.0309635042212903
547445.1082743664737791
575389.9392159673152491
547432.7015348965069279
533211.7651492434088141
482185.2211628017248586
512164.5907943354686722
498730.8134258051868528
496869.1212062563281506
488286.0905300673912279
503596.4127587745897472
502342.6168057474424131
499596.5392265870468691
447745.3049114184104837
519385.2359559696051292
448596.3669997031101957
527335.2488384309690446
495304.6802765874890611
537552.3875056233955547
492740.0472071584081277
462903.6105108367046341
529524.5658627245575190
524226.7611866121296771
464242.0015453549567610
463732.3223286927095614
414275.5442931817960925
393687.7772561302990653
427480.0725398233043961
402545.8680880678584799
472577.2373525698203593
400707.8253850353066809
408878.5597370928153396
420738.2019924948690459
426939.9660304835415445
401505.3086245438898914
418160.2963286035810597
400870.1391382271540351
410822.7259508762508631
398527.2592376107932068
449253.0528454504092224
411903.8989962774794549
403825.4927900539478287
401477.5383410432841629
435073.8520879102288745
435608.1109161124331877
400696.1231107342755422
395764.6537026672158390
407368.0100126196630299
488146.0195050797192380
407475.6826694503542967
399814.1492203382658772
408283.6425328413024545
392123.0273164497921243
413232.3911879239021800
438254.1963013235363178
453763.7594540612772107
401604.3808265485567972
478136.5027946782065555
41.4958410168949641
39.2495163416802768
40.0447224726495961
40.1197453812290163
42.8971196101177625
44.8692209402672262
95.7540555737587198
94.1559097200105697
43.6874254134589606
74.0671366616139721
447.5895754086679972
31.0347180093987838
26.3105289353572296
28.7342953187373240
22.1692660175067999
48.7998441742850559
311.0724477634713026
47.2883959973998742
44.4870196985756650
41.5860068738510549
38.5028856921946314
43.8862912515003671
21.3602979508606730
31.7484283915180647
27.2339035061374979
47.5483234165483140
38.5473924876698533
25.5898153443265066
30.6260453961547370
43.7963022423777488
10.8570054009747530
46.3369502542228986
45.9729275076435471
35.2806600882260639
31.0252798030551489
24.1695147983971665
32.1303041466177319
29.9960138004528858
26.7898278542806239
49.1064332666355838
29.9339055802141196
26.7624472756772569
11.5885330917185794
11.6515037432987647
24.3036836310899211
31.1370415272283907
29.4905124639179803
25.2557819226432763
28.7776345538692269
31.8855361855166670
31.0995896029315446
33.4342068922887208
49.7542390235194745
8.5732673056556497
122.3998992840707842
68.4187171687646867
28.3352044921491384
20.6477318237965051
120.9655854986884407
18.5615299834928535
27.1741131373705969
9.2710408697266420
16.4298472066380867
23.4207457293876047
29.4134073151331457
26.4063558567621719
13.2426827364461026
15.5102665792784595
26.5097092930358578
30.1497510594894464
26.3943554956913040
26.7550455482072316
16.1475858309431004
17.2280941638290344
13.9641833429527615
30.3486848410558601
26.3814897289665211
29.7440692196153869
30.8402107152641527
30.6679156118217335
30.2958038524595494
30.6839450909399929
26.4786096180545094
31.1686294905611696
25.5616788789450204
26.4017964606696509
26.3742097610578234
25.5824582838629091
12.8333954729036961
8.0069649716505236
30.4294875659831519
26.9424903816140393
24.1089885542801525
30.5553409253470392
18.6136391861669566
16.4673789705312821
7.0477636528087704
7.4426719481800667